 Gaussian 03, Revision E.01,
 Gaussian 03:  EM64L-G03RevE.01 11-Sep-2007

 -----------------------------
 #P B3LYP/6-31G* NoSymm POP=MK
 -----------------------------

 -------------------------------------
 Input file generated by MolarisTools.
 -------------------------------------
 Symbolic Z-matrix:
 Charge =  0 Multiplicity = 1

                          Input orientation:
 ---------------------------------------------------------------------
 Center     Atomic     Atomic              Coordinates (Angstroms)
 Number     Number      Type              X           Y           Z
 ---------------------------------------------------------------------
    1          6             0       -1.695000    1.207000   -0.053000
    2          6             0       -0.319000    1.819000    0.169000
    3          6             0       -0.257000    3.288000   -0.256000
    4          6             0        1.086000    3.959000    0.104000
    5          8             0       -1.616000   -0.196000    0.183000
    6          8             0       -1.317000    4.003000    0.387000
    7          7             0        2.260000    3.314000   -0.476000
    8          1             0       -2.035000    1.363000   -1.082000
    9          1             0       -2.432000    1.629000    0.637000
   10          1             0        0.428000    1.231000   -0.378000
   11          1             0       -0.067000    1.720000    1.233000
   12          1             0       -0.426000    3.358000   -1.338000
   13          1             0        1.194000    4.010000    1.195000
   14          1             0        1.057000    5.001000   -0.239000
   15          1             0       -2.510000   -0.553000    0.045000
   16          1             0       -1.288000    4.919000    0.059000
   17          1             0        2.374000    2.386000   -0.065000
   18          1             0        3.095000    3.834000   -0.205000
 ---------------------------------------------------------------------

 SCF Done:  E(RB+HF-LYP) =  -364.205634598     A.U. after    6 cycles

 Alpha  occ. eigenvalues --  -19.14313 -19.13076 -14.31264 -10.23475 -10.21948
 Alpha  occ. eigenvalues --  -10.20616 -10.17855  -1.01617  -1.00372  -0.88075
 Alpha  occ. eigenvalues --   -0.77008  -0.69394  -0.62077  -0.57521  -0.51837
 Alpha  occ. eigenvalues --   -0.49544  -0.49063  -0.45150  -0.44433  -0.41140
 Alpha  occ. eigenvalues --   -0.40749  -0.37847  -0.37008  -0.35045  -0.32704
 Alpha  occ. eigenvalues --   -0.31207  -0.26705  -0.25405  -0.23254
 Alpha virt. eigenvalues --    0.06867   0.07507   0.08100   0.12349   0.13425
 Alpha virt. eigenvalues --    0.14334   0.16236   0.17904   0.18822   0.19281
 Alpha virt. eigenvalues --    0.20451   0.21008   0.23067   0.25396   0.27851

 Mulliken atomic charges:
              1
     1  C   -0.024053
     2  C   -0.291103
     3  C    0.150867
     4  C   -0.161100
     5  O   -0.630708
     6  O   -0.633413
     7  N   -0.723002
     8  H    0.115482
     9  H    0.142981
    10  H    0.157426
    11  H    0.146631
    12  H    0.123685
    13  H    0.125958
    14  H    0.123112
    15  H    0.388057
    16  H    0.390072
    17  H    0.300711
    18  H    0.298397
 Sum of Mulliken charges=   0.00000

 Dipole moment (field-independent basis, Debye):
    X=    -0.0559    Y=     1.4731    Z=     0.0339  Tot=     1.4746
 Quadrupole moment (field-independent basis, Debye-Ang):
   XX=   -36.7071   YY=   -33.2613   ZZ=   -46.9476
   XY=     3.6312   XZ=     5.5104   YZ=     0.4503

 Normal termination of Gaussian 03 at Wed Jul 19 17:44:46 2017.
